13
	Energy:      14.3675944
N          0.01332       -0.05539        0.06064
C          1.47631       -0.01698        0.06714
C          1.99297       -0.04573        1.49924
O          1.20878        0.02144        2.43375
H          1.82909       -0.93455       -0.45043
C          1.93846        1.22344       -0.72598
H          1.45461        1.17916       -1.72583
S          3.73600        1.27483       -1.01700
H          1.62086        2.14916       -0.19962
H          3.62084        2.28630       -1.98958
H         -0.36306        0.81448        0.50562
O          3.30644       -0.19519        1.77567
H          3.97135       -0.35079        1.09394
