11
	Energy:       3.0708028
C          1.04831       -0.27790       -0.01537
C          2.30082       -1.15420       -0.00751
H          0.15271       -0.91102       -0.18884
H          1.11095        0.47788       -0.82727
H          0.93303        0.23961        0.96095
C          3.57235       -0.37366        0.22300
H          2.37690       -1.67748       -0.98457
H          2.19974       -1.91473        0.79600
O          4.75862       -1.01589        0.25547
H          4.81854       -1.97387        0.13380
O          3.54814        0.83748        0.38196
