9
	Energy:       1.6737078
C          0.70742       -0.11070        0.00000
C          2.02676        0.60288       -0.00000
O          2.04307        1.82456       -0.00000
O          3.19311       -0.08502        0.00000
H          0.84646       -1.21218        0.00000
H          0.13048        0.17562       -0.90425
H          0.13048        0.17562        0.90425
H          3.20348       -1.05236        0.00000
H          4.03957        0.38457       -0.00000
