18
	Energy:      44.3374372
N         -0.18686        0.02310       -0.28280
C          1.29224        0.01800       -0.18133
C          1.78585       -0.00038        1.26527
O          1.00392       -0.01642        2.20343
H          1.73098       -0.87908       -0.67233
C         -0.57213        1.41392       -0.59165
H         -0.82675        1.47627       -1.67647
H         -1.45384        1.76777       -0.01453
C          0.67072        2.26262       -0.37232
H          0.81601        2.43212        0.71816
H          0.64148        3.24806       -0.88387
C          1.73316        1.30929       -0.87224
H          2.78013        1.62334       -0.67489
H          1.60713        1.19147       -1.97342
H         -0.48303       -0.58610       -1.08200
O          3.11069       -0.00948        1.52659
H          3.77028       -0.01652        0.81915
H         -0.66885       -0.33040        0.57483
