8
	Energy:       0.3410106
C          0.40942       -0.15252        0.00927
C          1.92628       -0.10585       -0.08701
H          0.02649       -1.08144       -0.46416
H         -0.02632        0.72460       -0.51398
H          0.09485       -0.12975        1.07425
O          2.47702       -1.20681        0.56959
H          2.30336        0.82672        0.38317
H          2.23508       -0.12386       -1.15343
