16
	Energy:      19.0338433
N         -0.01004       -0.04177        0.09376
C          1.45821       -0.05782        0.10036
C          1.94739       -0.05780        1.54891
O          1.13503        0.02612        2.45790
C          1.97760        1.15797       -0.71499
C          3.41186        1.10086       -1.17685
O          4.09550        0.10129       -1.02224
O          3.91971        2.15689       -1.84636
H          1.77418       -1.00284       -0.39343
H          1.80439        2.08258       -0.12245
H          1.38593        1.24288       -1.65202
H          4.82645        2.15259       -2.18469
H         -0.36876        0.86544        0.47414
H         -0.36339       -0.15640       -0.88436
O          3.25049       -0.17345        1.88169
H          3.96001       -0.30378        1.24696
