19
	Energy:      14.7875762
N         -0.11550        0.37967        0.35228
C          1.29066        0.07137        0.06889
C          2.08243        0.02532        1.36723
O          1.56550        0.38060        2.41584
C          1.82880        1.12337       -0.93254
H          1.18208        1.08234       -1.83749
H          1.73315        2.13842       -0.48628
C          3.27757        0.90884       -1.39012
H          3.97629        1.04778       -0.54087
H          3.38710       -0.12172       -1.79400
C          3.64949        1.90346       -2.45304
O          3.60881        3.22608       -2.18421
O          3.99169        1.51495       -3.56003
H         -0.51472       -0.36381        0.97125
H          1.33398       -0.93988       -0.39541
H         -0.66579        0.35834       -0.53717
O          3.33847       -0.46946        1.40372
H          3.76097       -0.86703        0.63071
H          3.84013        3.88502       -2.85421
