7
	Energy:       3.4401416
C         -0.01413       -0.13759       -0.00674
N         -0.04986       -1.59404        0.02034
H         -0.79154        0.26005       -0.69525
H          0.98481        0.20579       -0.34895
H         -0.19462        0.26008        1.01413
H          0.11135       -1.95642       -0.94745
H         -0.99770       -1.90537        0.33430
