16
	Energy:      17.1289034
C          0.79652        0.11042        0.00000
C          1.56360        1.27893        0.00000
C          2.97348        1.21834        0.00000
C          3.58777       -0.05302       -0.00000
C          2.81320       -1.21781       -0.00000
C          1.42055       -1.13681       -0.00000
H          0.82511       -2.04068        0.00000
H         -0.28411        0.17313       -0.00000
H          4.65961       -0.17270        0.00000
H          3.29562       -2.18690        0.00000
H          1.04876        2.23155       -0.00000
C          3.76486        2.48883       -0.00000
O          3.17167        3.55865        0.00000
O          5.12241        2.50563        0.00000
H          5.59537        3.35027       -0.00000
H          5.65697        1.70374       -0.00000
