18
	Energy:      14.3141253
N         -0.10550        0.42643        0.34334
C          1.29120        0.05994        0.08362
C          2.05202       -0.04018        1.39754
O          1.53042        0.32753        2.43949
C          1.89762        1.10502       -0.88564
H          1.26394        1.12102       -1.80067
H          1.84815        2.11189       -0.41434
C          3.33908        0.82375       -1.33066
H          4.03258        0.88810       -0.46897
H          3.39380       -0.19457       -1.77521
C          3.78732        1.83855       -2.34317
O          3.83122        3.14498       -2.01770
O          4.12210        1.48417       -3.46227
H         -0.54895       -0.30589        0.94534
H          1.29852       -0.94443       -0.39697
H         -0.63777        0.43729       -0.55737
O          3.28213       -0.59471        1.45401
H          3.70091       -1.00452        0.68547
