15
	Energy:       5.5627409
C          1.34927        0.09407       -0.06335
C          0.07342        0.87824        0.01038
H          0.02445        1.41616        0.97998
H         -0.80832        0.20736       -0.07306
H          0.04301        1.61548       -0.81875
O          2.54765        0.73674        0.02023
C          3.75770        0.05786       -0.04250
C          4.94490        1.01243        0.07553
H          3.83263       -0.48187       -1.01233
H          3.81406       -0.68125        0.78698
H          4.92465        1.75078       -0.75402
H          5.89389        0.43835        0.02171
H          4.90607        1.55132        1.04599
O          1.29807       -1.12112       -0.19853
H          2.54100        1.70059        0.12697
