28
	Energy:       8.8908490
C          1.29422       -0.23150       -0.03006
C          0.00402       -0.98398        0.00563
H         -0.57825       -0.77148       -0.91533
H         -0.58570       -0.67313        0.89326
H          0.19757       -2.07572        0.06578
O          2.46736       -0.91279        0.01178
C          3.70616       -0.30705       -0.01826
C          4.79785       -1.36269        0.04418
H          3.81152        0.37429        0.85395
H          3.81645        0.27288       -0.96049
H          4.70727       -1.94847        0.98334
H          5.79372       -0.87150        0.02051
H          4.71357       -2.04867       -0.82509
O          1.27757        0.98985       -0.09692
N         -0.54459        2.54773       -0.93055
N          3.18359        2.62439        0.18667
C         -0.59726        3.31073       -2.17112
H         -0.66550        3.20147       -0.12320
H          0.39371        2.09289       -0.84970
H         -1.58673        3.80589       -2.26331
H         -0.46083        2.62769       -3.03573
H          0.20060        4.08516       -2.18926
C          3.76100        3.46049       -0.85524
H          3.93735        2.01118        0.57134
H          2.44816        2.01297       -0.23607
H          4.54912        4.10861       -0.41727
H          2.97274        4.10518       -1.29711
H          4.20913        2.82881       -1.65277
