17
	Energy:      19.5030769
N          0.01673       -0.05755        0.03797
C          1.48367       -0.03989        0.09993
C          1.91865       -0.08181        1.56520
O          1.07130       -0.04609        2.44484
C          2.00349        1.21749       -0.65087
H          1.43921        1.32568       -1.60283
H          1.78813        2.11371       -0.02828
C          3.45689        1.20760       -1.06852
O          4.15357        0.21748       -0.91356
N          3.98332        2.29820       -1.67161
H          3.40972        3.13957       -1.83025
H          4.96660        2.30279       -1.98111
H          1.84113       -0.95850       -0.41570
H         -0.37746        0.82753        0.43213
H         -0.29695       -0.14878       -0.95540
O          3.21078       -0.18356        1.94287
H          3.94593       -0.27984        1.33177
