22
	Energy:      21.7312678
C          2.55237        0.14076        0.00217
C          2.45216       -1.24981       -0.00309
C          3.60812       -2.03001       -0.00576
C          4.86904       -1.42437       -0.00320
C          4.99162       -0.01652        0.00212
C          3.80836        0.75390        0.00476
C          6.32020        0.67951        0.00504
O          7.50698       -0.00198        0.00265
C          8.73130        0.65749        0.00543
C          9.90414       -0.32303        0.00184
H          8.80887        1.29587        0.91321
H          8.80921        1.30289       -0.89735
H          9.86459       -0.96847        0.90493
H         10.86199        0.23871        0.00420
H          9.86492       -0.96144       -0.90624
O          6.33597        1.90456        0.00972
H          3.84951        1.83592        0.00883
H          3.52792       -3.10959       -0.00984
H          5.72523       -2.07935       -0.00547
H          1.65517        0.74633        0.00424
H          1.47874       -1.72307       -0.00508
H          7.50721       -0.96671       -0.00108
