26
	Energy:      20.2887989
N         -3.66190       -4.53478        0.11701
C         -2.20863       -4.65992       -0.00086
C         -1.58266       -4.81568        1.37647
O         -2.26223       -4.66815        2.38097
C         -1.67482       -3.44919       -0.80380
H         -1.90704       -2.50870       -0.25662
H         -2.22486       -3.43065       -1.77108
C         -0.17232       -3.48707       -1.11757
H          0.07175       -4.43536       -1.64471
H          0.41034       -3.42165       -0.17644
C          0.23538       -2.30802       -2.00732
H         -0.00461       -1.35285       -1.49191
H         -0.36526       -2.34002       -2.93133
N          1.66783       -2.35053       -2.25306
H          2.27397       -2.28869       -1.42078
C          2.32132       -2.46076       -3.52624
N          3.74251       -2.46598       -3.55548
H          4.25489       -2.54440       -4.44620
H          4.28361       -2.39121       -2.68215
N          1.67208       -2.55790       -4.64038
H          0.64926       -2.56504       -4.70238
H          2.18332       -2.63615       -5.53196
H         -3.89847       -3.64871        0.62206
H         -2.00919       -5.59336       -0.56969
O         -0.29311       -5.18974        1.52166
H          0.26345       -5.43436        0.77060
