28
	Energy:       8.8908490
C 1.29422 -0.2315 -0.03006
C 0.00402 -0.98398 0.00563
H -0.57825 -0.77148 -0.91533
H -0.5857 -0.67313 0.89326
H 0.19757 -2.07572 0.06578
O 2.46736 -0.91279 0.01178
C 3.70616 -0.30705 -0.01826
C 4.79785 -1.36269 0.04418
H 3.81152 0.37429 0.85395
H 3.81645 0.27288 -0.96049
H 4.70727 -1.94847 0.98334
H 5.79372 -0.8715 0.02051
H 4.71357 -2.04867 -0.82509
O 1.27757 0.98985 -0.09692
N -1.9530215369149024 3.7518873312601464 -1.5749010899802267
N 4.671927597187885 3.900739322728767 0.4081145069760612
C -2.0056915369149024 4.514887331260146 -2.815471089980227
H -2.0739315369149023 4.405627331260146 -0.7675510899802267
H -1.0147215369149023 3.2970473312601465 -1.4940510899802266
H -2.9951615369149023 5.010047331260147 -2.907661089980227
H -1.8692615369149024 3.831847331260146 -3.6800810899802268
H -1.2078315369149024 5.289317331260146 -2.8336110899802267
C 5.249337597187885 4.736839322728767 -0.6337954930239388
H 5.425687597187885 3.2875293227287674 0.7927845069760612
H 3.936497597187885 3.289319322728767 -0.014625493023938785
H 6.037457597187885 5.384959322728767 -0.19582549302393876
H 4.461077597187884 5.381529322728767 -1.0756654930239389
H 5.6974675971878845 4.105159322728767 -1.4313254930239387
