11
	Energy:       1.3938893
C          0.80141        2.89026       -0.15727
C          1.66904        1.72515        0.31391
H          0.85898        2.99679       -1.26188
H          1.13883        3.83713        0.31583
H         -0.25670        2.71107        0.12902
O          1.21550        0.54094       -0.27108
C          3.13447        1.94613       -0.05485
H          1.58417        1.63521        1.41839
H          3.51476        2.87565        0.42013
H          3.25042        2.02903       -1.15690
H          3.74580        1.09135        0.30472
