28
	Energy:       8.8908490
C 1.29422 -0.2315 -0.03006
C 0.00402 -0.98398 0.00563
H -0.57825 -0.77148 -0.91533
H -0.5857 -0.67313 0.89326
H 0.19757 -2.07572 0.06578
O 2.46736 -0.91279 0.01178
C 3.70616 -0.30705 -0.01826
C 4.79785 -1.36269 0.04418
H 3.81152 0.37429 0.85395
H 3.81645 0.27288 -0.96049
H 4.70727 -1.94847 0.98334
H 5.79372 -0.8715 0.02051
H 4.71357 -2.04867 -0.82509
O 1.27757 0.98985 -0.09692
N -1.773544229308519 3.598440812856805 -1.4927910294257698
N 4.483352175121891 3.7390232492438353 0.38005703436628
C -1.826214229308519 4.361440812856805 -2.7333610294257698
H -1.8944542293085191 4.252180812856805 -0.6854410294257698
H -0.8352442293085192 3.143600812856805 -1.41194102942577
H -2.815684229308519 4.856600812856805 -2.82555102942577
H -1.6897842293085192 3.678400812856805 -3.5979710294257696
H -1.028354229308519 5.135870812856805 -2.7515010294257696
C 5.060762175121891 4.575123249243836 -0.66185296563372
H 5.237112175121891 3.1258132492438353 0.76472703436628
H 3.747922175121891 3.1276032492438355 -0.04268296563372001
H 5.848882175121891 5.2232432492438345 -0.22388296563371998
H 4.272502175121891 5.219813249243835 -1.10372296563372
H 5.508892175121891 3.943443249243835 -1.45938296563372
