21
	Energy:      15.9362192
C          2.56519        0.11217        0.00192
C          2.54959       -1.28433       -0.00319
C          3.75146       -1.99569       -0.00546
C          4.97174       -1.31264       -0.00263
C          5.00082        0.09442        0.00253
C          3.78243        0.80059        0.00478
C          6.29662        0.81713        0.00553
O          7.45954        0.11505        0.00305
C          8.71209        0.69422        0.00574
C          9.77543       -0.39296        0.00139
H          8.83572        1.32208        0.91529
H          8.83613        1.32968       -0.89847
H          9.66999       -1.03209        0.90372
H         10.78485        0.06973        0.00356
H          9.67040       -1.02442       -0.90639
O          6.31557        2.04116        0.01019
H          3.76929        1.88336        0.00874
H          3.73803       -3.07800       -0.00941
H          5.89001       -1.88641       -0.00448
H          1.63309        0.66241        0.00368
H          1.60635       -1.81515       -0.00539
