27
	Energy:      23.7211127
N         -3.66565       -4.55780        0.12677
C         -2.20776       -4.66884        0.00162
C         -1.58250       -4.80264        1.38164
O         -2.26421       -4.64441        2.38310
C         -1.67375       -3.45780       -0.80796
H         -1.91313       -2.51596       -0.26644
H         -2.21546       -3.44416       -1.77970
C         -0.16982       -3.49087       -1.11605
H          0.07812       -4.43925       -1.64126
H          0.41051       -3.42211       -0.17397
C          0.23751       -2.31102       -2.00524
H         -0.00113       -1.35686       -1.48732
H         -0.36432       -2.34223       -2.92832
N          1.66956       -2.35511       -2.25366
H          2.27736       -2.30398       -1.42180
C          2.32065       -2.45681       -3.52887
N          3.74148       -2.48620       -3.55909
H          4.25211       -2.55917       -4.45132
H          4.28416       -2.43662       -2.68492
N          1.66964       -2.52347       -4.64424
H          0.64692       -2.50912       -4.70646
H          2.17930       -2.59577       -5.53725
H         -3.92565       -3.65636        0.59106
H         -1.99430       -5.60887       -0.55340
H         -4.10664       -4.58250       -0.82164
O         -0.29176       -5.16962        1.53414
H          0.26672       -5.42384        0.78774
