16
	Energy:      15.9874406
N          0.02448       -0.04270        0.02634
C          1.48691       -0.03576        0.10124
C          1.91730       -0.08258        1.56765
O          1.06859       -0.03600        2.44561
C          2.00379        1.21455       -0.65545
H          1.43986        1.30496       -1.60993
H          1.77918        2.11518       -0.04292
C          3.45973        1.21467       -1.06393
O          4.16665        0.23502       -0.89111
N          3.97808        2.30384       -1.67681
H          3.39594        3.13648       -1.85012
H          4.96364        2.31632       -1.97890
H          1.83449       -0.95426       -0.41797
H         -0.35467        0.83506        0.45347
O          3.20705       -0.20382        1.94752
H          3.94063       -0.31816        1.33730
