14
	Energy:      17.8095404
N          0.00649       -0.06271        0.07513
C          1.47344       -0.02043        0.06635
C          1.99445       -0.04580        1.49726
O          1.21207        0.02059        2.43343
H          1.83039       -0.93982       -0.44771
C          1.94050        1.22441       -0.72426
H          1.45878        1.19034       -1.72526
S          3.73752        1.26957       -1.01998
H          1.62740        2.14872       -0.19281
H          3.62434        2.28600       -1.98772
H         -0.38221        0.81592        0.49097
H         -0.35234       -0.15428       -0.90338
O          3.30885       -0.19100        1.77189
H          3.97395       -0.34561        1.09026
