19
	Energy:      21.4389946
N         -3.28558        2.33734        0.13082
C         -1.82663        2.24802        0.06093
C         -1.23605        2.20646        1.46186
O         -1.94854        2.39878        2.43548
C         -1.30387        3.41626       -0.80927
C          0.20225        3.40140       -1.07984
S          0.62503        4.76039       -2.22170
C          2.38823        4.32040       -2.32156
H         -1.58448        1.28423       -0.43621
H         -1.57561        4.38554       -0.33568
H         -1.82314        3.35382       -1.79148
H          0.47115        2.43050       -1.54896
H          0.75203        3.56708       -0.13217
H          2.85974        4.37593       -1.31829
H          2.89606        5.05909       -2.97488
H          2.51185        3.31712       -2.77983
H         -3.56126        3.24853        0.56658
O          0.06033        1.88771        1.66633
H          0.64637        1.61387        0.94853
