9
	Energy:       4.1390592
C          0.46728       -0.16913        0.03978
C          1.98485       -0.10050       -0.03642
H          0.10499       -1.11142       -0.42349
H          0.02482        0.69244       -0.50344
H          0.13730       -0.13438        1.09982
O          2.53548       -1.18909        0.65011
H          2.32327        0.85197        0.42885
H          2.29072       -0.13236       -1.10583
H          3.52006       -1.09498        0.56887
