17
	Energy:      37.5340439
N         -0.05476        0.01658        0.00875
C          1.41793        0.04038       -0.06274
C          1.99963        0.06845        1.33859
O          1.26701        0.05843        2.31652
H          1.82692       -0.86445       -0.56494
C         -0.50540        1.34495       -0.43544
H         -0.80932        1.28140       -1.50712
H         -1.37017        1.71641        0.15259
C          0.70769        2.25400       -0.33921
H          0.90488        2.49770        0.72870
H          0.61134        3.19956       -0.91311
C          1.77442        1.31044       -0.83806
H          2.82021        1.66481       -0.72003
H          1.59114        1.12966       -1.92243
H         -0.43934       -0.70831       -0.64091
O          3.33679        0.08490        1.52318
H          3.95384        0.06669        0.77880
