7
	Energy:       0.3977809
C          0.76281       -0.41387       -0.00002
C          2.14361        0.15862        0.00003
O          2.30294        1.36844        0.00013
O          3.21546       -0.65657       -0.00003
H          0.80535       -1.52349       -0.00011
H          0.21721       -0.07445       -0.90535
H          0.21721       -0.07460        0.90536
