12
	Energy:       5.6073803
C          0.78282        2.99075       -0.17594
C          1.56273        1.75144        0.26763
H          0.86819        3.13128       -1.27486
H          1.17379        3.89555        0.33657
H         -0.29011        2.87499        0.08637
O          1.06032        0.61332       -0.38142
C          3.04689        1.89766       -0.06355
H          1.47396        1.63165        1.37275
H          3.47219        2.78399        0.45409
H          3.19170        2.01459       -1.15910
H          3.59861        0.99467        0.27411
H          0.23069        0.35223        0.09768
