15
	Energy:      13.9867426
C          0.76413        0.09427        0.00000
C          1.49442        1.28689        0.00000
C          2.90235        1.26057       -0.00000
C          3.55979        0.01633        0.00000
C          2.82429       -1.17314        0.00000
C          1.42818       -1.13437       -0.00000
H          0.86104       -2.05624        0.00000
H         -0.31789        0.12309       -0.00000
H          4.64111       -0.03934       -0.00000
H          3.33776       -2.12600       -0.00000
H          0.95775        2.22742       -0.00000
C          3.68393        2.52165        0.00000
O          3.11270        3.60272       -0.00000
O          5.03437        2.48411       -0.00000
H          5.56311        3.29469       -0.00000
