24
	Energy:      23.5274386
N         -3.20113       -3.05794        0.22595
C         -1.77182       -3.27960       -0.02046
C         -1.06102       -3.57709        1.29246
O         -1.67004       -3.50548        2.34896
C         -1.17956       -2.04559       -0.74833
H         -1.78285       -1.83167       -1.65741
H         -1.27138       -1.16536       -0.07394
C          0.25084       -2.22125       -1.19564
C          1.26229       -1.38662       -0.69043
H          1.02852       -0.61157        0.02879
C          2.58669       -1.54978       -1.10779
H          3.35759       -0.90232       -0.70917
C          2.91647       -2.54340       -2.03537
C          1.91094       -3.37600       -2.54736
H          2.15405       -4.14701       -3.26759
C          0.58607       -3.21539       -2.13131
H         -0.17751       -3.86538       -2.53940
O          4.19851       -2.68740       -2.42717
H          4.46852       -3.36188       -3.06668
H         -1.68318       -4.17876       -0.66773
H         -3.34501       -2.18651        0.78762
H         -3.70480       -2.95262       -0.68488
O          0.23349       -3.96202        1.32306
H          0.75469       -4.11206        0.52480
