67
	Energy:     313.8753396
H         -2.12258        9.30059       -1.88460
O         -2.01023        8.84970       -1.01000
P         -0.36829        9.17693       -0.54584
O         -0.12670       10.83458       -0.09006
O          0.51478        8.91685       -1.79548
O          0.19192        8.07108        0.68341
C         -0.59354        8.26726        1.83064
C         -0.17353        7.32383        2.97732
O         -0.27745        5.96961        2.55220
C          1.25826        7.54776        3.50260
O          1.29475        7.11177        4.84995
C          2.00059        6.58729        2.60742
C          1.02578        5.42267        2.63290
N          1.28391        4.48752        1.53628
C          1.23938        4.72897        0.19983
N          1.55226        3.63121       -0.53946
C          1.79317        2.68403        0.38582
C          2.16553        1.35425        0.22619
N          2.35592        0.78065       -1.05186
N          2.34778        0.60942        1.35775
C          2.17089        1.14943        2.60659
N          1.80829        2.45959        2.75133
C          1.62787        3.19566        1.62833
H         -0.50045        9.31469        2.19780
H         -1.65972        8.04268        1.59939
H         -0.88543        7.52774        3.80842
H          1.11334        4.89314        3.60980
H          2.06696        7.01253        1.58801
H          3.03268        6.32871        2.91198
H          1.56636        8.61605        3.45432
H          0.98973        5.68646       -0.23606
H          2.22219        1.33922       -1.90730
H          2.63461       -0.20720       -1.13909
H          2.32494        0.53592        3.48342
P          2.90240        7.29903        5.53979
O          2.83184        8.01301        7.12071
O          3.74107        8.27002        4.66269
O          3.75399        5.77178        5.57119
C          3.05175        4.92341        6.44388
C          3.66320        3.51172        6.49627
O          3.61805        2.90640        5.20940
C          5.12357        3.48483        6.99029
O          5.38997        2.25961        7.62943
C          5.85197        3.49850        5.67533
C          4.94899        2.55193        4.88934
N          5.18876        2.60559        3.42918
C          5.59870        1.48024        2.73176
O          5.77730        0.41869        3.30668
N          5.80851        1.54434        1.37864
C          5.62322        2.71050        0.68787
O          5.82025        2.73370       -0.51560
C          5.20907        3.86257        1.36851
C          4.99382        5.17531        0.66497
C          4.99389        3.77692        2.74926
H          3.07121        5.33665        7.47792
H          1.99681        4.80454        6.10545
H          3.03101        2.93976        7.21157
H          5.10931        1.51840        5.27338
H          5.80873        4.52063        5.24974
H          6.91843        3.19122        5.72772
H          5.41687        4.31314        7.67561
H          4.66721        4.66207        3.27714
H          5.66195        5.94614        1.10318
H          3.94227        5.49678        0.78759
H          5.20457        5.11185       -0.42264
H          6.11661        0.68669        0.86468
H          4.96106        2.30620        8.52369
