14
	Energy:      13.5032999
C          0.76404        0.09408        0.00000
C          1.49452        1.28659       -0.00000
C          2.90239        1.25995       -0.00000
C          3.55973        0.01572        0.00000
C          2.82405       -1.17367       -0.00000
C          1.42793       -1.13469       -0.00000
H          0.86065       -2.05647        0.00000
H         -0.31797        0.12306       -0.00000
H          4.64106       -0.03989        0.00000
H          3.33739       -2.12660        0.00000
H          0.95818        2.22732       -0.00000
C          3.68388        2.52089        0.00000
O          3.11694        3.60260       -0.00000
O          5.03116        2.48908        0.00000
