20
	Energy:      24.9220289
N         -3.28004        2.29016        0.09237
C         -1.81423        2.23824        0.05322
C         -1.26268        2.20239        1.47020
O         -2.00742        2.37370        2.42361
C         -1.28649        3.42924       -0.78864
C          0.22626        3.44271       -1.02135
S          0.65218        4.82698       -2.13170
C          2.37552        4.29511       -2.37722
H         -1.53112        1.28236       -0.43926
H         -1.58862        4.38630       -0.30874
H         -1.77485        3.37500       -1.78700
H          0.51550        2.48206       -1.50092
H          0.75802        3.60142       -0.06201
H          2.89639        4.20087       -1.40157
H          2.90321        5.07603       -2.96246
H          2.40840        3.34739       -2.95400
H         -3.60276        3.20106        0.49456
H         -3.66530        2.19702       -0.87613
O          0.03394        1.91048        1.71115
H          0.64668        1.65098        1.01041
