66
	Energy:     315.4772033
H         -1.95393        9.19009       -1.98773
O         -1.85175        8.75259       -1.10511
P         -0.22692        9.11793       -0.61016
O         -0.02944       10.78379       -0.16311
O          0.68696        8.86691       -1.83933
O          0.33070        8.03337        0.63911
C         -0.47647        8.22788        1.77102
C         -0.06930        7.29227        2.92807
O         -0.18476        5.93209        2.51971
C          1.36455        7.51671        3.45099
O          1.39626        7.12647        4.81304
C          2.09851        6.51480        2.59335
C          1.10395        5.36266        2.65677
N          1.36349        4.33543        1.62325
C          1.67342        3.02895        1.97197
O          1.73245        2.68797        3.14038
N          1.92086        2.10371        1.00949
C          1.87085        2.41773       -0.30830
N          2.14209        1.42527       -1.27833
C          1.55105        3.71835       -0.69178
C          1.29758        4.66712        0.29664
H         -0.39155        9.27715        2.13491
H         -1.53855        7.99939        1.52505
H         -0.78295        7.51120        3.75381
H          1.15630        4.91564        3.67615
H          2.18400        6.90766        1.56309
H          3.12027        6.26200        2.92182
H          1.68452        8.57929        3.36583
H          1.04865        5.67154       -0.01357
H          1.50020        3.99455       -1.73752
H          2.38164        0.46682       -0.98586
H          2.10962        1.64631       -2.28434
P          2.99153        7.37447        5.51662
O          2.88804        8.20938        7.03520
O          3.84507        8.27843        4.58397
O          3.85353        5.86124        5.68609
C          3.16697        5.08947        6.63979
C          3.68445        3.63929        6.69233
O          3.55100        3.03907        5.41233
C          5.15341        3.49366        7.13376
O          5.35102        2.23249        7.72607
C          5.83701        3.49419        5.79843
C          4.84801        2.63876        5.01486
N          5.02159        2.78924        3.56800
C          4.98750        3.93424        2.83938
N          5.17169        3.71616        1.51027
C          5.32230        2.38176        1.42865
C          5.53182        1.57841        0.31921
O          5.61024        2.05360       -0.80024
N          5.64598        0.21859        0.52323
C          5.55415       -0.31865        1.78708
N          5.67265       -1.71473        1.97590
N          5.34605        0.49303        2.86957
C          5.23633        1.82676        2.66003
H          3.27889        5.54039        7.65115
H          2.08541        5.01893        6.37789
H          3.04093        3.11897        7.43634
H          4.96391        1.56706        5.29857
H          5.84299        4.52967        5.40232
H          6.88315        3.12001        5.79900
H          5.52545        4.27824        7.83198
H          4.83970        4.91308        3.26567
H          5.80356       -0.41065       -0.29653
H          5.60350       -2.11877        2.92106
H          5.82870       -2.34189        1.17369
H          4.96149        2.28222        8.63800
