28
	Energy:       8.8908490
C 1.29422 -0.2315 -0.03006
C 0.00402 -0.98398 0.00563
H -0.57825 -0.77148 -0.91533
H -0.5857 -0.67313 0.89326
H 0.19757 -2.07572 0.06578
O 2.46736 -0.91279 0.01178
C 3.70616 -0.30705 -0.01826
C 4.79785 -1.36269 0.04418
H 3.81152 0.37429 0.85395
H 3.81645 0.27288 -0.96049
H 4.70727 -1.94847 0.98334
H 5.79372 -0.8715 0.02051
H 4.71357 -2.04867 -0.82509
O 1.27757 0.98985 -0.09692
N -0.6966803836702181 2.677761702436756 -1.0001306660990275
N 3.3518996427259298 2.7687268083342467 0.211712198707593
C -0.7493503836702181 3.440761702436756 -2.240700666099028
H -0.8175903836702181 3.331501702436756 -0.1927806660990275
H 0.24161961632978188 2.2229217024367562 -0.9192806660990275
H -1.738820383670218 3.9359217024367563 -2.332890666099028
H -0.6129203836702182 2.757721702436756 -3.1053106660990277
H 0.048509616329781874 4.215191702436756 -2.2588406660990277
C 3.9293096427259298 3.6048268083342467 -0.8301978012924071
H 4.1056596427259295 2.1555168083342466 0.5963821987075929
H 2.6164696427259297 2.157306808334247 -0.211027801292407
H 4.71742964272593 4.252946808334246 -0.392227801292407
H 3.1410496427259296 4.2495168083342465 -1.272067801292407
H 4.37743964272593 2.9731468083342465 -1.627727801292407
