15
	Energy:      18.5036932
N         -0.01010       -0.04192        0.09392
C          1.45814       -0.05794        0.10039
C          1.94728       -0.05785        1.54909
O          1.13488        0.02638        2.45804
C          1.97703        1.15796       -0.71511
C          3.41112        1.10217       -1.17498
O          4.09629        0.10458       -1.02466
O          3.92061        2.15279       -1.84558
H          1.77431       -1.00286       -0.39349
H          1.80419        2.08257       -0.12259
H          1.38589        1.24282       -1.65230
H         -0.36870        0.86543        0.47397
H         -0.36354       -0.15629       -0.88424
O          3.25056       -0.17354        1.88163
H          3.96015       -0.30415        1.24693
