10
	Energy:       8.3745747
C          0.62102       -0.22278        0.05693
C          2.07300        0.17600       -0.17946
H          0.38252       -1.14579       -0.51297
H         -0.05182        0.59348       -0.28082
H          0.44655       -0.40718        1.13813
O          2.93159       -0.86187        0.22365
H          2.30049        1.11732        0.37354
H          2.20569        0.36580       -1.26838
H          2.95438       -0.84094        1.21600
H          3.84436       -0.58330       -0.04836
