23
	Energy:      19.6435789
N         -3.18845       -3.03660        0.23361
C         -1.77052       -3.28120       -0.02460
C         -1.06377       -3.57356        1.28854
O         -1.67318       -3.48656        2.34394
C         -1.17945       -2.04789       -0.74741
H         -1.78250       -1.83119       -1.65608
H         -1.27342       -1.17042       -0.06952
C          0.25107       -2.22256       -1.19484
C          1.26196       -1.38746       -0.68941
H          1.02773       -0.61291        0.03017
C          2.58633       -1.54908       -1.10752
H          3.35682       -0.90102       -0.70906
C          2.91662       -2.54184       -2.03583
C          1.91165       -3.37518       -2.54775
H          2.15516       -4.14562       -3.26847
C          0.58679       -3.21592       -2.13113
H         -0.17645       -3.86633       -2.53921
O          4.19860       -2.68431       -2.42841
H          4.46890       -3.35808       -3.06854
H         -1.69271       -4.18263       -0.67073
H         -3.69140       -2.97222       -0.68170
O          0.22789       -3.96748        1.32252
H          0.74773       -4.12613        0.52478
