14
	Energy:       3.1074844
C          1.35473        0.05169       -0.06802
C          0.10923        0.87483        0.01038
H          0.08219        1.41383        0.98022
H         -0.79407        0.23293       -0.07010
H          0.10075        1.61319       -0.81823
O          2.56121        0.66715        0.01265
C          3.76960        0.00328       -0.04841
C          4.90801        1.00425        0.07423
H          3.85761       -0.53210       -1.01923
H          3.83899       -0.73178        0.78329
H          4.85801        1.74122       -0.75534
H          5.88166        0.47260        0.02540
H          4.83943        1.54193        1.04377
O          1.27530       -1.16158       -0.20332
