8
	Energy:       0.9055403
C          0.33483       -0.03226       -0.00000
C          1.79240        0.29911       -0.00000
O          2.14995        1.46729       -0.00000
O          2.70968       -0.69103        0.00000
H          0.18948       -1.13314       -0.00000
H         -0.14568        0.39422       -0.90537
H         -0.14568        0.39422        0.90537
H          3.65843       -0.50011        0.00000
