10
	Energy:       2.6304141
C          1.04895       -0.27829       -0.01536
C          2.30285       -1.15264       -0.00710
H          0.15440       -0.91287       -0.18892
H          1.11048        0.47750       -0.82736
H          0.93256        0.23923        0.96085
C          3.56990       -0.37128        0.22308
H          2.38051       -1.67606       -0.98394
H          2.20337       -1.91328        0.79647
O          4.74805       -1.02207        0.25359
O          3.55050        0.83985        0.38252
